# vtk DataFile Version 3.0
Scalar Field Data
ASCII
DATASET STRUCTURED_POINTS
DIMENSIONS 200 200 1
ORIGIN 0 0 0
SPACING 0.00502513 0.00502513 1
POINT_DATA 40000
SCALARS scalars double
LOOKUP_TABLE default
0
0
0
0
0
0
0
0
0
0
0
0
0
0
0
0
0
0
0
0
0
0
0
0
0
0
0
0
0
0
0
0
0
0
0
0
0
0
0
0
0
0
0
0
0
0
0
0
0
0
0
0
0
0
0
0
0
0
0
0
0
0
0
0
0
0
0
0
0
0
0
0
0
0
0
0
0
0
0
0
0
0
0
0
0
0
0
0
0
0
0
0
0
0
0
0
0
0
0
0
-0
-0
-0
-0
-0
-0
-0
-0
-0
-0
-0
-0
-0
-0
-0
-0
-0
-0
-0
-0
-0
-0
-0
-0
-0
-0
-0
-0
-0
-0
-0
-0
-0
-0
-0
-0
-0
-0
-0
-0
-0
-0
-0
-0
-0
-0
-0
-0
-0
-0
-0
-0
-0
-0
-0
-0
-0
-0
-0
-0
-0
-0
-0
-0
-0
-0
-0
-0
-0
-0
-0
-0
-0
-0
-0
-0
-0
-0
-0
-0
-0
-0
-0
-0
-0
-0
-0
-0
-0
-0
-0
-0
-0
-0
-0
-0
-0
-0
-0
-0
0
0.000996573
0.00199215
0.00298575
0.00397637
0.00496302
0.00594473
0.00692051
0.00788939
0.00885041
0.0098026
0.010745
0.0116767
0.0125968
0.0135043
0.0143984
0.0152781
0.0161426
0.0169909
0.0178224
0.0186361
0.0194312
0.0202069
0.0209625
0.0216972
0.0224103
0.023101
0.0237687
0.0244127
0.0250324
0.0256271
0.0261963
0.0267393
0.0272557
0.027745
0.0282065
0.02864
0.0290449
0.0294209
0.0297675
0.0300845
0.0303715
0.0306281
0.0308543
0.0310497
0.0312142
0.0313475
0.0314496
0.0315204
0.0315597
0.0315676
0.031544
0.0314889
0.0314025
0.0312848
0.0311358
0.0309559
0.0307451
0.0305036
0.0302317
0.0299297
0.0295979
0.0292365
0.0288461
0.0284268
0.0279792
0.0275038
0.0270009
0.0264711
0.0259149
0.0253329
0.0247256
0.0240937
0.0234378
0.0227585
0.0220565
0.0213325
0.0205873
0.0198215
0.019036
0.0182315
0.0174088
0.0165688
0.0157123
0.0148401
0.0139531
0.0130522
0.0121383
0.0112123
0.0102751
0.00932767
0.00837094
0.00740587
0.00643342
0.00545455
0.00447025
0.00348149
0.00248926
0.00149455
0.000498349
-0.000498349
-0.00149455
-0.00248926
-0.00348149
-0.00447025
-0.00545455
-0.00643342
-0.00740587
-0.00837094
-0.00932767
-0.0102751
-0.0112123
-0.0121383
-0.0130522
-0.0139531
-0.0148401
-0.0157123
-0.0165688
-0.0174088
-0.0182315
-0.019036
-0.0198215
-0.0205873
-0.0213325
-0.0220565
-0.0227585
-0.0234378
-0.0240937
-0.0247256
-0.0253329
-0.0259149
-0.0264711
-0.0270009
-0.0275038
-0.0279792
-0.0284268
-0.0288461
-0.0292365
-0.0295979
-0.0299297
-0.0302317
-0.0305036
-0.0307451
-0.0309559
-0.0311358
-0.0312848
-0.0314025
-0.0314889
-0.031544
-0.0315676
-0.0315597
-0.0315204
-0.0314496
-0.0313475
-0.0312142
-0.0310497
-0.0308543
-0.0306281
-0.0303715
-0.0300845
-0.0297675
-0.0294209
-0.0290449
-0.02864
-0.0282065
-0.027745
-0.0272557
-0.0267393
-0.0261963
-0.0256271
-0.0250324
-0.0244127
-0.0237687
-0.023101
-0.0224103
-0.0216972
-0.0209625
-0.0202069
-0.0194312
-0.0186361
-0.0178224
-0.0169909
-0.0161426
-0.0152781
-0.0143984
-0.0135043
-0.0125968
-0.0116767
-0.010745
-0.0098026
-0.00885041
-0.00788939
-0.00692051
-0.00594473
-0.00496302
-0.00397637
-0.00298575
-0.00199215
-0.000996573
-7.73206e-18
0
0.00199215
0.00398232
0.00596852
0.00794877
0.00992109
0.0118835
0.0138341
0.0157709
0.017692
0.0195954
0.0214793
0.0233418
0.0251811
0.0269952
0.0287824
0.030541
0.032269
0.033965
0.035627
0.0372536
0.038843
0.0403937
0.0419041
0.0433728
0.0447982
0.046179
0.0475137
0.0488011
0.0500398
0.0512286
0.0523664
0.053452
0.0544843
0.0554623
0.056385
0.0572515
0.0580609
0.0588124
0.0595054
0.060139
0.0607126
0.0612258
0.0616779
0.0620685
0.0623973
0.0626638
0.0628679
0.0630093
0.0630879
0.0631037
0.0630565
0.0629465
0.0627737
0.0625383
0.0622406
0.0618809
0.0614595
0.0609768
0.0604333
0.0598296
0.0591663
0.0584439
0.0576634
0.0568253
0.0559306
0.0549801
0.0539749
0.0529158
0.051804
0.0506405
0.0494266
0.0481634
0.0468522
0.0454942
0.044091
0.0426437
0.041154
0.0396233
0.038053
0.0364448
0.0348003
0.0331211
0.0314089
0.0296654
0.0278923
0.0260914
0.0242645
0.0224134
0.02054
0.018646
0.0167335
0.0148044
0.0128604
0.0109037
0.00893604
0.00695951
0.00497604
0.00298761
0.000996201
-0.000996201
-0.00298761
-0.00497604
-0.00695951
-0.00893604
-0.0109037
-0.0128604
-0.0148044
-0.0167335
-0.018646
-0.02054
-0.0224134
-0.0242645
-0.0260914
-0.0278923
-0.0296654
-0.0314089
-0.0331211
-0.0348003
-0.0364448
-0.038053
-0.0396233
-0.041154
-0.0426437
-0.044091
-0.0454942
-0.0468522
-0.0481634
-0.0494266
-0.0506405
-0.051804
-0.0529158
-0.0539749
-0.0549801
-0.0559306
-0.0568253
-0.0576634
-0.0584439
-0.0591663
-0.0598296
-0.0604333
-0.0609768
-0.0614595
-0.0618809
-0.0622406
-0.0625383
-0.0627737
-0.0629465
-0.0630565
-0.0631037
-0.0630879
-0.0630093
-0.0628679
-0.0626638
-0.0623973
-0.0620685
-0.0616779
-0.0612258
-0.0607126
-0.060139
-0.0595054
-0.0588124
-0.0580609
-0.0572515
-0.056385
-0.0554623
-0.0544843
-0.053452
-0.0523664
-0.0512286
-0.0500398
-0.0488011
-0.0475137
-0.046179
-0.0447982
-0.0433728
-0.0419041
-0.0403937
-0.038843
-0.0372536
-0.035627
-0.033965
-0.032269
-0.030541
-0.0287824
-0.0269952
-0.0251811
-0.0233418
-0.0214793
-0.0195954
-0.017692
-0.0157709
-0.0138341
-0.0118835
-0.00992109
-0.00794877
-0.00596852
-0.00398232
-0.00199215
-1.54564e-17
0
0.00298575
0.00596852
0.00894534
0.0119132
0.0148693
0.0178105
0.0207339
0.0236367
0.0265159
0.0293687
0.0321923
0.0349837
0.0377402
0.0404592
0.0431378
0.0457734
0.0483633
0.0509051
0.0533961
0.0558339
0.0582161
0.0605402
0.0628039
0.0650051
0.0671415
0.0692109
0.0712113
0.0731408
0.0749973
0.0767791
0.0784844
0.0801114
0.0816585
0.0831243
0.0845072
0.0858059
0.087019
0.0881454
0.0891839
0.0901335
0.0909933
0.0917624
0.0924399
0.0930254
0.0935181
0.0939176
0.0942235
0.0944355
0.0945533
0.0945769
0.0945062
0.0943412
0.0940823
0.0937296
0.0932834
0.0927442
0.0921126
0.0913892
0.0905747
0.0896699
0.0886757
0.0875931
0.0864232
0.0851671
0.0838262
0.0824017
0.080895
0.0793077
0.0776414
0.0758977
0.0740783
0.072185
0.0702198
0.0681847
0.0660815
0.0639125
0.0616797
0.0593855
0.0570321
0.0546218
0.0521571
0.0496404
0.0470742
0.0444611
0.0418037
0.0391046
0.0363665
0.0335922
0.0307843
0.0279458
0.0250795
0.0221881
0.0192746
0.0163419
0.0133929
0.0104306
0.00745786
0.00447769
0.00149306
-0.00149306
-0.00447769
-0.00745786
-0.0104306
-0.0133929
-0.0163419
-0.0192746
-0.0221881
-0.0250795
-0.0279458
-0.0307843
-0.0335922
-0.0363665
-0.0391046
-0.0418037
-0.0444611
-0.0470742
-0.0496404
-0.0521571
-0.0546218
-0.0570321
-0.0593855
-0.0616797
-0.0639125
-0.0660815
-0.0681847
-0.0702198
-0.072185
-0.0740783
-0.0758977
-0.0776414
-0.0793077
-0.080895
-0.0824017
-0.0838262
-0.0851671
-0.0864232
-0.0875931
-0.0886757
-0.0896699
-0.0905747
-0.0913892
-0.0921126
-0.0927442
-0.0932834
-0.0937296
-0.0940823
-0.0943412
-0.0945062
-0.0945769
-0.0945533
-0.0944355
-0.0942235
-0.0939176
-0.0935181
-0.0930254
-0.0924399
-0.0917624
-0.0909933
-0.0901335
-0.0891839
-0.0881454
-0.087019
-0.0858059
-0.0845072
-0.0831243
-0.0816585
-0.0801114
-0.0784844
-0.0767791
-0.0749973
-0.0731408
-0.0712113
-0.0692109
-0.0671415
-0.0650051
-0.0628039
-0.0605402
-0.0582161
-0.0558339
-0.0533961
-0.0509051
-0.0483633
-0.0457734
-0.0431378
-0.0404592
-0.0377402
-0.0349837
-0.0321923
-0.0293687
-0.0265159
-0.0236367
-0.0207339
-0.0178105
-0.0148693
-0.0119132
-0.00894534
-0.00596852
-0.00298575
-2.31654e-17
0
0.00397637
0.00794877
0.0119132
0.0158658
0.0198026
0.0237197
0.0276131
0.031479
0.0353135
0.0391128
0.0428731
0.0465906
0.0502618
0.0538828
0.0574501
0.0609602
0.0644094
0.0677945
0.071112
0.0743586
0.0775311
0.0806263
0.0836412
0.0865726
0.0894178
0.0921738
0.094838
0.0974076
0.0998801
0.102253
0.104524
0.106691
0.108751
0.110703
0.112545
0.114275
0.11589
0.11739
0.118774
0.120038
0.121183
0.122207
0.12311
0.12389
0.124546
0.125078
0.125485
0.125767
0.125924
0.125956
0.125862
0.125642
0.125297
0.124827
0.124233
0.123515
0.122674
0.121711
0.120626
0.119421
0.118097
0.116655
0.115097
0.113424
0.111638
0.109741
0.107735
0.105621
0.103401
0.101079
0.0986561
0.0961348
0.0935175
0.0908071
0.0880062
0.0851175
0.082144
0.0790886
0.0759543
0.0727444
0.0694619
0.0661102
0.0626926
0.0592125
0.0556734
0.0520788
0.0484322
0.0447374
0.040998
0.0372177
0.0334004
0.0295497
0.0256696
0.0217639
0.0178365
0.0138913
0.00993224
0.00596331
0.00198843
-0.00198843
-0.00596331
-0.00993224
-0.0138913
-0.0178365
-0.0217639
-0.0256696
-0.0295497
-0.0334004
-0.0372177
-0.040998
-0.0447374
-0.0484322
-0.0520788
-0.0556734
-0.0592125
-0.0626926
-0.0661102
-0.0694619
-0.0727444
-0.0759543
-0.0790886
-0.082144
-0.0851175
-0.0880062
-0.0908071
-0.0935175
-0.0961348
-0.0986561
-0.101079
-0.103401
-0.105621
-0.107735
-0.109741
-0.111638
-0.113424
-0.115097
-0.116655
-0.118097
-0.119421
-0.120626
-0.121711
-0.122674
-0.123515
-0.124233
-0.124827
-0.125297
-0.125642
-0.125862
-0.125956
-0.125924
-0.125767
-0.125485
-0.125078
-0.124546
-0.12389
-0.12311
-0.122207
-0.121183
-0.120038
-0.118774
-0.11739
-0.11589
-0.114275
-0.112545
-0.110703
-0.108751
-0.106691
-0.104524
-0.102253
-0.0998801
-0.0974076
-0.094838
-0.0921738
-0.0894178
-0.0865726
-0.0836412
-0.0806263
-0.0775311
-0.0743586
-0.071112
-0.0677945
-0.0644094
-0.0609602
-0.0574501
-0.0538828
-0.0502618
-0.0465906
-0.0428731
-0.0391128
-0.0353135
-0.031479
-0.0276131
-0.0237197
-0.0198026
-0.0158658
-0.0119132
-0.00794877
-0.00397637
-3.08512e-17
0
0.00496302
0.00992109
0.0148693
0.0198026
0.0247163
0.0296052
0.0344647
0.0392898
0.0440758
0.0488178
0.0535111
0.0581512
0.0627332
0.0672527
0.0717052
0.0760862
0.0803913
0.0846164
0.088757
0.0928092
0.0967689
0.100632
0.104395
0.108054
0.111605
0.115045
0.11837
0.121577
0.124663
0.127625
0.13046
0.133164
0.135736
0.138172
0.140471
0.14263
0.144646
0.146518
0.148245
0.149823
0.151252
0.152531
0.153657
0.15463
0.155449
0.156113
0.156622
0.156974
0.15717
0.157209
0.157092
0.156817
0.156387
0.155801
0.155059
0.154163
0.153113
0.151911
0.150557
0.149053
0.1474
0.1456
0.143656
0.141568
0.139339
0.136971
0.134467
0.131828
0.129058
0.12616
0.123136
0.119989
0.116722
0.113339
0.109843
0.106238
0.102526
0.0987128
0.0948009
0.0907944
0.0866975
0.0825141
0.0782485
0.0739049
0.0694876
0.0650011
0.0604497
0.0558381
0.0511708
0.0464526
0.041688
0.0368819
0.032039
0.0271641
0.0222622
0.0173381
0.0123967
0.00744298
0.00248182
-0.00248182
-0.00744298
-0.0123967
-0.0173381
-0.0222622
-0.0271641
-0.032039
-0.0368819
-0.041688
-0.0464526
-0.0511708
-0.0558381
-0.0604497
-0.0650011
-0.0694876
-0.0739049
-0.0782485
-0.0825141
-0.0866975
-0.0907944
-0.0948009
-0.0987128
-0.102526
-0.106238
-0.109843
-0.113339
-0.116722
-0.119989
-0.123136
-0.12616
-0.129058
-0.131828
-0.134467
-0.136971
-0.139339
-0.141568
-0.143656
-0.1456
-0.1474
-0.149053
-0.150557
-0.151911
-0.153113
-0.154163
-0.155059
-0.155801
-0.156387
-0.156817
-0.157092
-0.157209
-0.15717
-0.156974
-0.156622
-0.156113
-0.155449
-0.15463
-0.153657
-0.152531
-0.151252
-0.149823
-0.148245
-0.146518
-0.144646
-0.14263
-0.140471
-0.138172
-0.135736
-0.133164
-0.13046
-0.127625
-0.124663
-0.121577
-0.11837
-0.115045
-0.111605
-0.108054
-0.104395
-0.100632
-0.0967689
-0.0928092
-0.088757
-0.0846164
-0.0803913
-0.0760862
-0.0717052
-0.0672527
-0.0627332
-0.0581512
-0.0535111
-0.0488178
-0.0440758
-0.0392898
-0.0344647
-0.0296052
-0.0247163
-0.0198026
-0.0148693
-0.00992109
-0.00496302
-3.85063e-17
0
0.00594473
0.0118835
0.0178105
0.0237197
0.0296052
0.0354613
0.041282
0.0470615
0.0527942
0.0584742
0.0640959
0.0696537
0.0751421
0.0805556
0.0858888
0.0911364
0.0962931
0.101354
0.106314
0.111167
0.11591
0.120538
0.125045
0.129427
0.133681
0.137801
0.141784
0.145626
0.149322
0.15287
0.156265
0.159505
0.162585
0.165503
0.168257
0.170842
0.173258
0.1755
0.177568
0.179459
0.181171
0.182702
0.184051
0.185217
0.186198
0.186993
0.187602
0.188024
0.188259
0.188306
0.188165
0.187837
0.187321
0.186619
0.18573
0.184657
0.183399
0.181959
0.180337
0.178536
0.176556
0.174401
0.172072
0.169571
0.166901
0.164065
0.161065
0.157904
0.154587
0.151115
0.147492
0.143723
0.13981
0.135758
0.131571
0.127252
0.122807
0.118239
0.113553
0.108754
0.103847
0.0988358
0.0937264
0.0885236
0.0832326
0.0778586
0.0724069
0.0668831
0.0612927
0.0556411
0.0499341
0.0441773
0.0383764
0.0325373
0.0266658
0.0207677
0.0148489
0.00891524
0.00297273
-0.00297273
-0.00891524
-0.0148489
-0.0207677
-0.0266658
-0.0325373
-0.0383764
-0.0441773
-0.0499341
-0.0556411
-0.0612927
-0.0668831
-0.0724069
-0.0778586
-0.0832326
-0.0885236
-0.0937264
-0.0988358
-0.103847
-0.108754
-0.113553
-0.118239
-0.122807
-0.127252
-0.131571
-0.135758
-0.13981
-0.143723
-0.147492
-0.151115
-0.154587
-0.157904
-0.161065
-0.164065
-0.166901
-0.169571
-0.172072
-0.174401
-0.176556
-0.178536
-0.180337
-0.181959
-0.183399
-0.184657
-0.18573
-0.186619
-0.187321
-0.187837
-0.188165
-0.188306
-0.188259
-0.188024
-0.187602
-0.186993
-0.186198
-0.185217
-0.184051
-0.182702
-0.181171
-0.179459
-0.177568
-0.1755
-0.173258
-0.170842
-0.168257
-0.165503
-0.162585
-0.159505
-0.156265
-0.15287
-0.149322
-0.145626
-0.141784
-0.137801
-0.133681
-0.129427
-0.125045
-0.120538
-0.11591
-0.111167
-0.106314
-0.101354
-0.0962931
-0.0911364
-0.0858888
-0.0805556
-0.0751421
-0.0696537
-0.0640959
-0.0584742
-0.0527942
-0.0470615
-0.041282
-0.0354613
-0.0296052
-0.0237197
-0.0178105
-0.0118835
-0.00594473
-4.61231e-17
0
0.00692051
0.0138341
0.0207339
0.0276131
0.0344647
0.041282
0.0480581
0.0547863
0.0614599
0.0680723
0.0746167
0.0810868
0.0874761
0.0937782
0.0999868
0.106096
0.112099
0.11799
0.123764
0.129415
0.134936
0.140323
0.14557
0.150672
0.155624
0.16042
0.165057
0.169529
0.173832
0.177962
0.181915
0.185686
0.189272
0.192669
0.195875
0.198885
0.201697
0.204308
0.206715
0.208916
0.210909
0.212691
0.214262
0.215619
0.216761
0.217687
0.218396
0.218887
0.21916
0.219215
0.219051
0.218669
0.218068
0.217251
0.216217
0.214967
0.213503
0.211826
0.209938
0.207841
0.205537
0.203027
0.200316
0.197404
0.194296
0.190995
0.187502
0.183823
0.179961
0.175919
0.171702
0.167314
0.162759
0.158042
0.153167
0.148139
0.142964
0.137647
0.132192
0.126605
0.120892
0.115059
0.109111
0.103054
0.0968946
0.0906384
0.084292
0.0778615
0.0713534
0.0647742
0.0581304
0.0514286
0.0446756
0.0378781
0.0310428
0.0241765
0.0172862
0.0103786
0.00346068
-0.00346068
-0.0103786
-0.0172862
-0.0241765
-0.0310428
-0.0378781
-0.0446756
-0.0514286
-0.0581304
-0.0647742
-0.0713534
-0.0778615
-0.084292
-0.0906384
-0.0968946
-0.103054
-0.109111
-0.115059
-0.120892
-0.126605
-0.132192
-0.137647
-0.142964
-0.148139
-0.153167
-0.158042
-0.162759
-0.167314
-0.171702
-0.175919
-0.179961
-0.183823
-0.187502
-0.190995
-0.194296
-0.197404
-0.200316
-0.203027
-0.205537
-0.207841
-0.209938
-0.211826
-0.213503
-0.214967
-0.216217
-0.217251
-0.218068
-0.218669
-0.219051
-0.219215
-0.21916
-0.218887
-0.218396
-0.217687
-0.216761
-0.215619
-0.214262
-0.212691
-0.210909
-0.208916
-0.206715
-0.204308
-0.201697
-0.198885
-0.195875
-0.192669
-0.189272
-0.185686
-0.181915
-0.177962
-0.173832
-0.169529
-0.165057
-0.16042
-0.155624
-0.150672
-0.14557
-0.140323
-0.134936
-0.129415
-0.123764
-0.11799
-0.112099
-0.106096
-0.0999868
-0.0937782
-0.0874761
-0.0810868
-0.0746167
-0.0680723
-0.0614599
-0.0547863
-0.0480581
-0.041282
-0.0344647
-0.0276131
-0.0207339
-0.0138341
-0.00692051
-5.36938e-17
0
0.00788939
0.0157709
0.0236367
0.031479
0.0392898
0.0470615
0.0547863
0.0624565
0.0700644
0.0776025
0.0850632
0.0924391
0.0997229
0.106907
0.113985
0.120949
0.127793
0.134509
0.141091
0.147533
0.153827
0.159968
0.16595
0.171766
0.177411
0.182879
0.188165
0.193264
0.198169
0.202877
0.207383
0.211682
0.21577
0.219643
0.223298
0.226729
0.229935
0.232911
0.235655
0.238164
0.240436
0.242468
0.244259
0.245806
0.247108
0.248163
0.248971
0.249532
0.249843
0.249905
0.249718
0.249283
0.248598
0.247666
0.246487
0.245063
0.243394
0.241482
0.23933
0.236939
0.234312
0.231452
0.22836
0.225041
0.221498
0.217734
0.213753
0.209559
0.205156
0.200548
0.195741
0.190738
0.185545
0.180168
0.17461
0.168879
0.162979
0.156917
0.150699
0.14433
0.137817
0.131167
0.124387
0.117482
0.11046
0.103328
0.096093
0.0887622
0.081343
0.0738426
0.0662687
0.0586287
0.0509303
0.0431811
0.0353888
0.0275613
0.0197063
0.0118316
0.00394519
-0.00394519
-0.0118316
-0.0197063
-0.0275613
-0.0353888
-0.0431811
-0.0509303
-0.0586287
-0.0662687
-0.0738426
-0.081343
-0.0887622
-0.096093
-0.103328
-0.11046
-0.117482
-0.124387
-0.131167
-0.137817
-0.14433
-0.150699
-0.156917
-0.162979
-0.168879
-0.17461
-0.180168
-0.185545
-0.190738
-0.195741
-0.200548
-0.205156
-0.209559
-0.213753
-0.217734
-0.221498
-0.225041
-0.22836
-0.231452
-0.234312
-0.236939
-0.23933
-0.241482
-0.243394
-0.245063
-0.246487
-0.247666
-0.248598
-0.249283
-0.249718
-0.249905
-0.249843
-0.249532
-0.248971
-0.248163
-0.247108
-0.245806
-0.244259
-0.242468
-0.240436
-0.238164
-0.235655
-0.232911
-0.229935
-0.226729
-0.223298
-0.219643
-0.21577
-0.211682
-0.207383
-0.202877
-0.198169
-0.193264
-0.188165
-0.182879
-0.177411
-0.171766
-0.16595
-0.159968
-0.153827
-0.147533
-0.141091
-0.134509
-0.127793
-0.120949
-0.113985
-0.106907
-0.0997229
-0.0924391
-0.0850632
-0.0776025
-0.0700644
-0.0624565
-0.0547863
-0.0470615
-0.0392898
-0.031479
-0.0236367
-0.0157709
-0.00788939
-6.1211e-17
0
0.00885041
0.017692
0.0265159
0.0353135
0.0440758
0.0527942
0.0614599
0.0700644
0.0785991
0.0870554
0.0954249
0.103699
0.11187
0.11993
0.12787
0.135682
0.14336
0.150894
0.158278
0.165504
0.172565
0.179454
0.186165
0.192689
0.199022
0.205156
0.211086
0.216805
0.222308
0.22759
0.232645
0.237468
0.242054
0.246399
0.250498
0.254347
0.257943
0.261282
0.264361
0.267175
0.269724
0.272004
0.274012
0.275748
0.277208
0.278392
0.279299
0.279927
0.280277
0.280346
0.280137
0.279648
0.27888
0.277835
0.276512
0.274914
0.273042
0.270898
0.268483
0.265801
0.262854
0.259645
0.256177
0.252454
0.248479
0.244257
0.239791
0.235085
0.230146
0.224977
0.219584
0.213972
0.208147
0.202114
0.19588
0.189451
0.182832
0.176032
0.169056
0.161911
0.154605
0.147145
0.139538
0.131792
0.123915
0.115915
0.107798
0.0995745
0.0912515
0.0828375
0.074341
0.0657704
0.0571342
0.048441
0.0396996
0.0309186
0.0221067
0.0132729
0.00442576
-0.00442576
-0.0132729
-0.0221067
-0.0309186
-0.0396996
-0.048441
-0.0571342
-0.0657704
-0.074341
-0.0828375
-0.0912515
-0.0995745
-0.107798
-0.115915
-0.123915
-0.131792
-0.139538
-0.147145
-0.154605
-0.161911
-0.169056
-0.176032
-0.182832
-0.189451
-0.19588
-0.202114
-0.208147
-0.213972
-0.219584
-0.224977
-0.230146
-0.235085
-0.239791
-0.244257
-0.248479
-0.252454
-0.256177
-0.259645
-0.262854
-0.265801
-0.268483
-0.270898
-0.273042
-0.274914
-0.276512
-0.277835
-0.27888
-0.279648
-0.280137
-0.280346
-0.280277
-0.279927
-0.279299
-0.278392
-0.277208
-0.275748
-0.274012
-0.272004
-0.269724
-0.267175
-0.264361
-0.261282
-0.257943
-0.254347
-0.250498
-0.246399
-0.242054
-0.237468
-0.232645
-0.22759
-0.222308
-0.216805
-0.211086
-0.205156
-0.199022
-0.192689
-0.186165
-0.179454
-0.172565
-0.165504
-0.158278
-0.150894
-0.14336
-0.135682
-0.12787
-0.11993
-0.11187
-0.103699
-0.0954249
-0.0870554
-0.0785991
-0.0700644
-0.0614599
-0.0527942
-0.0440758
-0.0353135
-0.0265159
-0.017692
-0.00885041
-6.86672e-17
0
0.0098026
0.0195954
0.0293687
0.0391128
0.0488178
0.0584742
0.0680723
0.0776025
0.0870554
0.0964214
0.105691
0.114856
0.123906
0.132833
0.141627
0.15028
0.158783
0.167128
0.175307
0.18331
0.191131
0.198761
0.206194
0.21342
0.220434
0.227228
0.233796
0.240131
0.246226
0.252076
0.257675
0.263016
0.268096
0.272908
0.277448
0.281712
0.285695
0.289393
0.292803
0.29592
0.298743
0.301268
0.303493
0.305415
0.307032
0.308344
0.309348
0.310044
0.310431
0.310508
0.310276
0.309735
0.308885
0.307727
0.306262
0.304492
0.302418
0.300043
0.297369
0.294398
0.291134
0.28758
0.283739
0.279615
0.275212
0.270536
0.265589
0.260378
0.254907
0.249182
0.243209
0.236993
0.230541
0.223859
0.216954
0.209833
0.202503
0.194971
0.187244
0.179331
0.171239
0.162976
0.154551
0.145972
0.137247
0.128385
0.119396
0.110287
0.101069
0.0917498
0.0823392
0.0728464
0.0632811
0.0536527
0.0439708
0.034245
0.0244851
0.0147009
0.00490191
-0.00490191
-0.0147009
-0.0244851
-0.034245
-0.0439708
-0.0536527
-0.0632811
-0.0728464
-0.0823392
-0.0917498
-0.101069
-0.110287
-0.119396
-0.128385
-0.137247
-0.145972
-0.154551
-0.162976
-0.171239
-0.179331
-0.187244
-0.194971
-0.202503
-0.209833
-0.216954
-0.223859
-0.230541
-0.236993
-0.243209
-0.249182
-0.254907
-0.260378
-0.265589
-0.270536
-0.275212
-0.279615
-0.283739
-0.28758
-0.291134
-0.294398
-0.297369
-0.300043
-0.302418
-0.304492
-0.306262
-0.307727
-0.308885
-0.309735
-0.310276
-0.310508
-0.310431
-0.310044
-0.309348
-0.308344
-0.307032
-0.305415
-0.303493
-0.301268
-0.298743
-0.29592
-0.292803
-0.289393
-0.285695
-0.281712
-0.277448
-0.272908
-0.268096
-0.263016
-0.257675
-0.252076
-0.246226
-0.240131
-0.233796
-0.227228
-0.220434
-0.21342
-0.206194
-0.198761
-0.191131
-0.18331
-0.175307
-0.167128
-0.158783
-0.15028
-0.141627
-0.132833
-0.123906
-0.114856
-0.105691
-0.0964214
-0.0870554
-0.0776025
-0.0680723
-0.0584742
-0.0488178
-0.0391128
-0.0293687
-0.0195954
-0.0098026
-7.6055e-17
0
0.010745
0.0214793
0.0321923
0.0428731
0.0535111
0.0640959
0.0746167
0.0850632
0.0954249
0.105691
0.115853
0.125898
0.135819
0.145603
0.155243
0.164728
0.174049
0.183196
0.192161
0.200934
0.209506
0.21787
0.226017
0.233939
0.241627
0.249074
0.256273
0.263217
0.269898
0.276311
0.282447
0.288303
0.293871
0.299145
0.304122
0.308796
0.313162
0.317215
0.320953
0.32437
0.327464
0.330232
0.33267
0.334777
0.336551
0.337988
0.339089
0.339852
0.340276
0.340361
0.340106
0.339513
0.338581
0.337311
0.335706
0.333765
0.331492
0.328889
0.325958
0.322702
0.319124
0.315228
0.311017
0.306497
0.301671
0.296545
0.291123
0.285411
0.279414
0.273139
0.266591
0.259778
0.252705
0.245381
0.237812
0.230007
0.221971
0.213715
0.205246
0.196572
0.187702
0.178645
0.169409
0.160005
0.150442
0.140729
0.130875
0.120891
0.110786
0.100571
0.0902553
0.0798499
0.069365
0.0588108
0.0481981
0.0375373
0.0268391
0.0161142
0.00537318
-0.00537318
-0.0161142
-0.0268391
-0.0375373
-0.0481981
-0.0588108
-0.069365
-0.0798499
-0.0902553
-0.100571
-0.110786
-0.120891
-0.130875
-0.140729
-0.150442
-0.160005
-0.169409
-0.178645
-0.187702
-0.196572
-0.205246
-0.213715
-0.221971
-0.230007
-0.237812
-0.245381
-0.252705
-0.259778
-0.266591
-0.273139
-0.279414
-0.285411
-0.291123
-0.296545
-0.301671
-0.306497
-0.311017
-0.315228
-0.319124
-0.322702
-0.325958
-0.328889
-0.331492
-0.333765
-0.335706
-0.337311
-0.338581
-0.339513
-0.340106
-0.340361
-0.340276
-0.339852
-0.339089
-0.337988
-0.336551
-0.334777
-0.33267
-0.330232
-0.327464
-0.32437
-0.320953
-0.317215
-0.313162
-0.308796
-0.304122
-0.299145
-0.293871
-0.288303
-0.282447
-0.276311
-0.269898
-0.263217
-0.256273
-0.249074
-0.241627
-0.233939
-0.226017
-0.21787
-0.209506
-0.200934
-0.192161
-0.183196
-0.174049
-0.164728
-0.155243
-0.145603
-0.135819
-0.125898
-0.115853
-0.105691
-0.0954249
-0.0850632
-0.0746167
-0.0640959
-0.0535111
-0.0428731
-0.0321923
-0.0214793
-0.010745
-8.33669e-17
0
0.0116767
0.0233418
0.0349837
0.0465906
0.0581512
0.0696537
0.0810868
0.0924391
0.103699
0.114856
0.125898
0.136815
0.147596
0.158229
0.168704
0.179012
0.189141
0.199081
0.208823
0.218357
0.227673
0.236762
0.245615
0.254224
0.262579
0.270672
0.278495
0.286041
0.293302
0.30027
0.306939
0.313302
0.319352
0.325085
0.330493
0.335572
0.340316
0.344721
0.348783
0.352497
0.355859
0.358867
0.361517
0.363806
0.365733
0.367296
0.368492
0.369321
0.369782
0.369874
0.369597
0.368952
0.36794
0.36656
0.364815
0.362707
0.360237
0.357407
0.354222
0.350683
0.346795
0.342561
0.337986
0.333074
0.32783
0.322259
0.316366
0.310159
0.303642
0.296823
0.289707
0.282303
0.274618
0.266658
0.258433
0.249951
0.241219
0.232247
0.223043
0.213617
0.203977
0.194135
0.184099
0.17388
0.163487
0.152931
0.142223
0.131373
0.120392
0.109291
0.0980814
0.0867738
0.0753797
0.0639104
0.0523774
0.0407922
0.0291664
0.0175115
0.0058391
-0.0058391
-0.0175115
-0.0291664
-0.0407922
-0.0523774
-0.0639104
-0.0753797
-0.0867738
-0.0980814
-0.109291
-0.120392
-0.131373
-0.142223
-0.152931
-0.163487
-0.17388
-0.184099
-0.194135
-0.203977
-0.213617
-0.223043
-0.232247
-0.241219
-0.249951
-0.258433
-0.266658
-0.274618
-0.282303
-0.289707
-0.296823
-0.303642
-0.310159
-0.316366
-0.322259
-0.32783
-0.333074
-0.337986
-0.342561
-0.346795
-0.350683
-0.354222
-0.357407
-0.360237
-0.362707
-0.364815
-0.36656
-0.36794
-0.368952
-0.369597
-0.369874
-0.369782
-0.369321
-0.368492
-0.367296
-0.365733
-0.363806
-0.361517
-0.358867
-0.355859
-0.352497
-0.348783
-0.344721
-0.340316
-0.335572
-0.330493
-0.325085
-0.319352
-0.313302
-0.306939
-0.30027
-0.293302
-0.286041
-0.278495
-0.270672
-0.262579
-0.254224
-0.245615
-0.236762
-0.227673
-0.218357
-0.208823
-0.199081
-0.189141
-0.179012
-0.168704
-0.158229
-0.147596
-0.136815
-0.125898
-0.114856
-0.103699
-0.0924391
-0.0810868
-0.0696537
-0.0581512
-0.0465906
-0.0349837
-0.0233418
-0.0116767
-9.05958e-17
0
0.0125968
0.0251811
0.0377402
0.0502618
0.0627332
0.0751421
0.0874761
0.0997229
0.11187
0.123906
0.135819
0.147596
0.159225
0.170697
0.181998
0.193117
0.204044
0.214768
0.225277
0.235562
0.245613
0.255418
0.264969
0.274255
0.283269
0.291999
0.300439
0.30858
0.316412
0.32393
0.331124
0.337988
0.344516
0.3507
0.356534
0.362013
0.367132
0.371884
0.376265
0.380272
0.383899
0.387144
0.390003
0.392473
0.394551
0.396237
0.397527
0.398422
0.398919
0.399018
0.39872
0.398024
0.396932
0.395443
0.393561
0.391286
0.388622
0.385569
0.382133
0.378316
0.374121
0.369554
0.364618
0.359319
0.353661
0.347651
0.341295
0.334598
0.327568
0.320211
0.312535
0.304547
0.296256
0.28767
0.278797
0.269646
0.260226
0.250546
0.240617
0.230449
0.22005
0.209432
0.198605
0.187581
0.176369
0.164982
0.15343
0.141725
0.129879
0.117903
0.10581
0.0936112
0.0813192
0.0689462
0.0565045
0.0440065
0.0314646
0.0188913
0.00629919
-0.00629919
-0.0188913
-0.0314646
-0.0440065
-0.0565045
-0.0689462
-0.0813192
-0.0936112
-0.10581
-0.117903
-0.129879
-0.141725
-0.15343
-0.164982
-0.176369
-0.187581
-0.198605
-0.209432
-0.22005
-0.230449
-0.240617
-0.250546
-0.260226
-0.269646
-0.278797
-0.28767
-0.296256
-0.304547
-0.312535
-0.320211
-0.327568
-0.334598
-0.341295
-0.347651
-0.353661
-0.359319
-0.364618
-0.369554
-0.374121
-0.378316
-0.382133
-0.385569
-0.388622
-0.391286
-0.393561
-0.395443
-0.396932
-0.398024
-0.39872
-0.399018
-0.398919
-0.398422
-0.397527
-0.396237
-0.394551
-0.392473
-0.390003
-0.387144
-0.383899
-0.380272
-0.376265
-0.371884
-0.367132
-0.362013
-0.356534
-0.3507
-0.344516
-0.337988
-0.331124
-0.32393
-0.316412
-0.30858
-0.300439
-0.291999
-0.283269
-0.274255
-0.264969
-0.255418
-0.245613
-0.235562
-0.225277
-0.214768
-0.204044
-0.193117
-0.181998
-0.170697
-0.159225
-0.147596
-0.135819
-0.123906
-0.11187
-0.0997229
-0.0874761
-0.0751421
-0.0627332
-0.0502618
-0.0377402
-0.0251811
-0.0125968
-9.77343e-17
0
0.0135043
0.0269952
0.0404592
0.0538828
0.0672527
0.0805556
0.0937782
0.106907
0.11993
0.132833
0.145603
0.158229
0.170697
0.182994
0.195109
0.20703
0.218744
0.23024
0.241507
0.252533
0.263307
0.273819
0.284058
0.294014
0.303676
0.313036
0.322084
0.330811
0.339208
0.347267
0.354979
0.362338
0.369336
0.375966
0.38222
0.388094
0.393581
0.398676
0.403373
0.407668
0.411556
0.415035
0.4181
0.420748
0.422976
0.424783
0.426167
0.427125
0.427658
0.427765
0.427445
0.426699
0.425528
0.423932
0.421914
0.419476
0.416619
0.413347
0.409663
0.405571
0.401074
0.396178
0.390886
0.385205
0.37914
0.372697
0.365883
0.358704
0.351167
0.34328
0.335051
0.326488
0.3176
0.308395
0.298882
0.289072
0.278973
0.268597
0.257952
0.247051
0.235903
0.22452
0.212914
0.201095
0.189075
0.176867
0.164483
0.151935
0.139235
0.126397
0.113433
0.100355
0.0871778
0.0739134
0.0605753
0.0471769
0.0337314
0.0202523
0.00675301
-0.00675301
-0.0202523
-0.0337314
-0.0471769
-0.0605753
-0.0739134
-0.0871778
-0.100355
-0.113433
-0.126397
-0.139235
-0.151935
-0.164483
-0.176867
-0.189075
-0.201095
-0.212914
-0.22452
-0.235903
-0.247051
-0.257952
-0.268597
-0.278973
-0.289072
-0.298882
-0.308395
-0.3176
-0.326488
-0.335051
-0.34328
-0.351167
-0.358704
-0.365883
-0.372697
-0.37914
-0.385205
-0.390886
-0.396178
-0.401074
-0.405571
-0.409663
-0.413347
-0.416619
-0.419476
-0.421914
-0.423932
-0.425528
-0.426699
-0.427445
-0.427765
-0.427658
-0.427125
-0.426167
-0.424783
-0.422976
-0.420748
-0.4181
-0.415035
-0.411556
-0.407668
-0.403373
-0.398676
-0.393581
-0.388094
-0.38222
-0.375966
-0.369336
-0.362338
-0.354979
-0.347267
-0.339208
-0.330811
-0.322084
-0.313036
-0.303676
-0.294014
-0.284058
-0.273819
-0.263307
-0.252533
-0.241507
-0.23024
-0.218744
-0.20703
-0.195109
-0.182994
-0.170697
-0.158229
-0.145603
-0.132833
-0.11993
-0.106907
-0.0937782
-0.0805556
-0.0672527
-0.0538828
-0.0404592
-0.0269952
-0.0135043
-1.04775e-16
0
0.0143984
0.0287824
0.0431378
0.0574501
0.0717052
0.0858888
0.0999868
0.113985
0.12787
0.141627
0.155243
0.168704
0.181998
0.195109
0.208026
0.220736
0.233226
0.245483
0.257496
0.269252
0.28074
0.291947
0.302864
0.313479
0.323781
0.333761
0.343408
0.352712
0.361665
0.370258
0.378481
0.386327
0.393788
0.400856
0.407525
0.413788
0.419638
0.42507
0.430078
0.434657
0.438804
0.442512
0.44578
0.448603
0.450979
0.452906
0.454381
0.455403
0.455971
0.456085
0.455744
0.454949
0.4537
0.451999
0.449847
0.447247
0.444201
0.440713
0.436785
0.432422
0.427627
0.422407
0.416765
0.410708
0.404241
0.397372
0.390106
0.382452
0.374416
0.366007
0.357233
0.348103
0.338626
0.328812
0.31867
0.30821
0.297443
0.286379
0.27503
0.263407
0.251521
0.239385
0.22701
0.214408
0.201593
0.188577
0.175373
0.161994
0.148454
0.134765
0.120943
0.106999
0.0929494
0.0788068
0.0645857
0.0503002
0.0359646
0.0215931
0.00720009
-0.00720009
-0.0215931
-0.0359646
-0.0503002
-0.0645857
-0.0788068
-0.0929494
-0.106999
-0.120943
-0.134765
-0.148454
-0.161994
-0.175373
-0.188577
-0.201593
-0.214408
-0.22701
-0.239385
-0.251521
-0.263407
-0.27503
-0.286379
-0.297443
-0.30821
-0.31867
-0.328812
-0.338626
-0.348103
-0.357233
-0.366007
-0.374416
-0.382452
-0.390106
-0.397372
-0.404241
-0.410708
-0.416765
-0.422407
-0.427627
-0.432422
-0.436785
-0.440713
-0.444201
-0.447247
-0.449847
-0.451999
-0.4537
-0.454949
-0.455744
-0.456085
-0.455971
-0.455403
-0.454381
-0.452906
-0.450979
-0.448603
-0.44578
-0.442512
-0.438804
-0.434657
-0.430078
-0.42507
-0.419638
-0.413788
-0.407525
-0.400856
-0.393788
-0.386327
-0.378481
-0.370258
-0.361665
-0.352712
-0.343408
-0.333761
-0.323781
-0.313479
-0.302864
-0.291947