# vtk DataFile Version 3.0
Scalar Field Data
ASCII
DATASET STRUCTURED_POINTS
DIMENSIONS 200 200 1
ORIGIN 0 0 0
SPACING 0.00502513 0.00502513 1
POINT_DATA 40000
SCALARS scalars double
LOOKUP_TABLE default
0
0
0
0
0
0
0
0
0
0
0
0
0
0
0
0
0
0
0
0
0
0
0
0
0
0
0
0
0
0
0
0
0
0
0
0
0
0
0
0
0
0
0
0
0
0
0
0
0
0
0
0
0
0
0
0
0
0
0
0
0
0
0
0
0
0
0
0
0
0
0
0
0
0
0
0
0
0
0
0
0
0
0
0
0
0
0
0
0
0
0
0
0
0
0
0
0
0
0
0
0
0
0
0
0
0
0
0
0
0
0
0
0
0
0
0
0
0
0
0
0
0
0
0
0
0
0
0
0
0
0
0
0
0
0
0
0
0
0
0
0
0
0
0
0
0
0
0
0
0
0
0
0
0
0
0
0
0
0
0
0
0
0
0
0
0
0
0
0
0
0
0
0
0
0
0
0
0
0
0
0
0
0
0
0
0
0
0
0
0
0
0
0
0
0
0
0
0
0
0
0
0.000996656
0.00199232
0.002986
0.0039767
0.00496343
0.00594522
0.00692108
0.00789005
0.00885114
0.00980342
0.0107459
0.0116777
0.0125979
0.0135055
0.0143996
0.0152794
0.0161439
0.0169924
0.0178239
0.0186376
0.0194328
0.0202086
0.0209642
0.021699
0.0224121
0.0231029
0.0237707
0.0244147
0.0250344
0.0256292
0.0261984
0.0267415
0.027258
0.0277473
0.0282089
0.0286424
0.0290473
0.0294233
0.02977
0.030087
0.030374
0.0306307
0.0308569
0.0310523
0.0312168
0.0313501
0.0314522
0.031523
0.0315623
0.0315702
0.0315466
0.0314915
0.0314051
0.0312874
0.0311384
0.0309584
0.0307476
0.0305061
0.0302342
0.0299322
0.0296003
0.029239
0.0288485
0.0284292
0.0279816
0.0275061
0.0270031
0.0264733
0.0259171
0.025335
0.0247277
0.0240957
0.0234397
0.0227604
0.0220583
0.0213343
0.020589
0.0198232
0.0190376
0.018233
0.0174103
0.0165702
0.0157136
0.0148413
0.0139543
0.0130533
0.0121393
0.0112132
0.010276
0.00932844
0.00837164
0.00740649
0.00643395
0.00545501
0.00447062
0.00348178
0.00248947
0.00149467
0.00049839
-0.00049839
-0.00149467
-0.00248947
-0.00348178
-0.00447062
-0.00545501
-0.00643395
-0.00740649
-0.00837164
-0.00932844
-0.010276
-0.0112132
-0.0121393
-0.0130533
-0.0139543
-0.0148413
-0.0157136
-0.0165702
-0.0174103
-0.018233
-0.0190376
-0.0198232
-0.020589
-0.0213343
-0.0220583
-0.0227604
-0.0234397
-0.0240957
-0.0247277
-0.025335
-0.0259171
-0.0264733
-0.0270031
-0.0275061
-0.0279816
-0.0284292
-0.0288485
-0.029239
-0.0296003
-0.0299322
-0.0302342
-0.0305061
-0.0307476
-0.0309584
-0.0311384
-0.0312874
-0.0314051
-0.0314915
-0.0315466
-0.0315702
-0.0315623
-0.031523
-0.0314522
-0.0313501
-0.0312168
-0.0310523
-0.0308569
-0.0306307
-0.030374
-0.030087
-0.02977
-0.0294233
-0.0290473
-0.0286424
-0.0282089
-0.0277473
-0.027258
-0.0267415
-0.0261984
-0.0256292
-0.0250344
-0.0244147
-0.0237707
-0.0231029
-0.0224121
-0.021699
-0.0209642
-0.0202086
-0.0194328
-0.0186376
-0.0178239
-0.0169924
-0.0161439
-0.0152794
-0.0143996
-0.0135055
-0.0125979
-0.0116777
-0.0107459
-0.00980342
-0.00885114
-0.00789005
-0.00692108
-0.00594522
-0.00496343
-0.0039767
-0.002986
-0.00199232
-0.000996656
0
0
0.00199232
0.00398265
0.00596901
0.00794943
0.00992192
0.0118845
0.0138353
0.0157722
0.0176935
0.0195971
0.0214811
0.0233438
0.0251832
0.0269974
0.0287848
0.0305435
0.0322717
0.0339678
0.03563
0.0372567
0.0388462
0.040397
0.0419076
0.0433764
0.0448019
0.0461828
0.0475176
0.0488051
0.0500439
0.0512329
0.0523708
0.0534564
0.0544888
0.0554669
0.0563897
0.0572562
0.0580657
0.0588173
0.0595103
0.060144
0.0607177
0.0612309
0.061683
0.0620737
0.0624024
0.062669
0.0628731
0.0630146
0.0630932
0.0631089
0.0630617
0.0629517
0.0627789
0.0625435
0.0622458
0.061886
0.0614646
0.0609819
0.0604383
0.0598346
0.0591712
0.0584488
0.0576682
0.05683
0.0559352
0.0549847
0.0539793
0.0529202
0.0518083
0.0506447
0.0494307
0.0481674
0.046856
0.045498
0.0440946
0.0426473
0.0411574
0.0396266
0.0380562
0.0364479
0.0348032
0.0331239
0.0314115
0.0296679
0.0278946
0.0260936
0.0242665
0.0224153
0.0205417
0.0186476
0.0167349
0.0148056
0.0128615
0.0109046
0.00893678
0.00696009
0.00497645
0.00298786
0.000996284
-0.000996284
-0.00298786
-0.00497645
-0.00696009
-0.00893678
-0.0109046
-0.0128615
-0.0148056
-0.0167349
-0.0186476
-0.0205417
-0.0224153
-0.0242665
-0.0260936
-0.0278946
-0.0296679
-0.0314115
-0.0331239
-0.0348032
-0.0364479
-0.0380562
-0.0396266
-0.0411574
-0.0426473
-0.0440946
-0.045498
-0.046856
-0.0481674
-0.0494307
-0.0506447
-0.0518083
-0.0529202
-0.0539793
-0.0549847
-0.0559352
-0.05683
-0.0576682
-0.0584488
-0.0591712
-0.0598346
-0.0604383
-0.0609819
-0.0614646
-0.061886
-0.0622458
-0.0625435
-0.0627789
-0.0629517
-0.0630617
-0.0631089
-0.0630932
-0.0630146
-0.0628731
-0.062669
-0.0624024
-0.0620737
-0.061683
-0.0612309
-0.0607177
-0.060144
-0.0595103
-0.0588173
-0.0580657
-0.0572562
-0.0563897
-0.0554669
-0.0544888
-0.0534564
-0.0523708
-0.0512329
-0.0500439
-0.0488051
-0.0475176
-0.0461828
-0.0448019
-0.0433764
-0.0419076
-0.040397
-0.0388462
-0.0372567
-0.03563
-0.0339678
-0.0322717
-0.0305435
-0.0287848
-0.0269974
-0.0251832
-0.0233438
-0.0214811
-0.0195971
-0.0176935
-0.0157722
-0.0138353
-0.0118845
-0.00992192
-0.00794943
-0.00596901
-0.00398265
-0.00199232
0
0
0.002986
0.00596901
0.00894608
0.0119142
0.0148705
0.017812
0.0207357
0.0236387
0.0265181
0.0293712
0.0321949
0.0349866
0.0377434
0.0404625
0.0431414
0.0457772
0.0483674
0.0509093
0.0534006
0.0558386
0.0582209
0.0605452
0.0628092
0.0650105
0.067147
0.0692166
0.0712172
0.0731468
0.0750035
0.0767855
0.0784909
0.080118
0.0816653
0.0831312
0.0845142
0.085813
0.0870262
0.0881527
0.0891913
0.090141
0.0910008
0.09177
0.0924476
0.0930331
0.0935259
0.0939254
0.0942313
0.0944433
0.0945611
0.0945847
0.094514
0.0943491
0.0940901
0.0937373
0.0932911
0.0927519
0.0921203
0.0913968
0.0905822
0.0896773
0.088683
0.0876004
0.0864304
0.0851742
0.0838332
0.0824085
0.0809018
0.0793143
0.0776479
0.075904
0.0740844
0.072191
0.0702257
0.0681903
0.066087
0.0639178
0.0616849
0.0593905
0.0570368
0.0546264
0.0521615
0.0496445
0.0470781
0.0444648
0.0418072
0.0391078
0.0363695
0.0335949
0.0307869
0.0279481
0.0250815
0.0221899
0.0192762
0.0163433
0.013394
0.0104315
0.00745848
0.00447806
0.00149318
-0.00149318
-0.00447806
-0.00745848
-0.0104315
-0.013394
-0.0163433
-0.0192762
-0.0221899
-0.0250815
-0.0279481
-0.0307869
-0.0335949
-0.0363695
-0.0391078
-0.0418072
-0.0444648
-0.0470781
-0.0496445
-0.0521615
-0.0546264
-0.0570368
-0.0593905
-0.0616849
-0.0639178
-0.066087
-0.0681903
-0.0702257
-0.072191
-0.0740844
-0.075904
-0.0776479
-0.0793143
-0.0809018
-0.0824085
-0.0838332
-0.0851742
-0.0864304
-0.0876004
-0.088683
-0.0896773
-0.0905822
-0.0913968
-0.0921203
-0.0927519
-0.0932911
-0.0937373
-0.0940901
-0.0943491
-0.094514
-0.0945847
-0.0945611
-0.0944433
-0.0942313
-0.0939254
-0.0935259
-0.0930331
-0.0924476
-0.09177
-0.0910008
-0.090141
-0.0891913
-0.0881527
-0.0870262
-0.085813
-0.0845142
-0.0831312
-0.0816653
-0.080118
-0.0784909
-0.0767855
-0.0750035
-0.0731468
-0.0712172
-0.0692166
-0.067147
-0.0650105
-0.0628092
-0.0605452
-0.0582209
-0.0558386
-0.0534006
-0.0509093
-0.0483674
-0.0457772
-0.0431414
-0.0404625
-0.0377434
-0.0349866
-0.0321949
-0.0293712
-0.0265181
-0.0236387
-0.0207357
-0.017812
-0.0148705
-0.0119142
-0.00894608
-0.00596901
-0.002986
0
0
0.0039767
0.00794943
0.0119142
0.0158672
0.0198043
0.0237217
0.0276154
0.0314816
0.0353164
0.039116
0.0428766
0.0465945
0.0502659
0.0538873
0.0574549
0.0609652
0.0644148
0.0678002
0.0711179
0.0743648
0.0775376
0.080633
0.0836481
0.0865798
0.0894252
0.0921815
0.0948458
0.0974157
0.0998884
0.102262
0.104533
0.1067
0.10876
0.110713
0.112555
0.114284
0.1159
0.1174
0.118783
0.120048
0.121193
0.122218
0.12312
0.1239
0.124556
0.125088
0.125496
0.125778
0.125935
0.125966
0.125872
0.125652
0.125308
0.124838
0.124243
0.123525
0.122684
0.121721
0.120636
0.119431
0.118106
0.116665
0.115106
0.113433
0.111647
0.10975
0.107744
0.105629
0.10341
0.101088
0.0986643
0.0961427
0.0935253
0.0908147
0.0880135
0.0851246
0.0821508
0.0790952
0.0759607
0.0727504
0.0694677
0.0661157
0.0626978
0.0592174
0.055678
0.0520831
0.0484363
0.0447411
0.0410014
0.0372208
0.0334031
0.0295522
0.0256717
0.0217657
0.0178379
0.0138924
0.00993307
0.0059638
0.0019886
-0.0019886
-0.0059638
-0.00993307
-0.0138924
-0.0178379
-0.0217657
-0.0256717
-0.0295522
-0.0334031
-0.0372208
-0.0410014
-0.0447411
-0.0484363
-0.0520831
-0.055678
-0.0592174
-0.0626978
-0.0661157
-0.0694677
-0.0727504
-0.0759607
-0.0790952
-0.0821508
-0.0851246
-0.0880135
-0.0908147
-0.0935253
-0.0961427
-0.0986643
-0.101088
-0.10341
-0.105629
-0.107744
-0.10975
-0.111647
-0.113433
-0.115106
-0.116665
-0.118106
-0.119431
-0.120636
-0.121721
-0.122684
-0.123525
-0.124243
-0.124838
-0.125308
-0.125652
-0.125872
-0.125966
-0.125935
-0.125778
-0.125496
-0.125088
-0.124556
-0.1239
-0.12312
-0.122218
-0.121193
-0.120048
-0.118783
-0.1174
-0.1159
-0.114284
-0.112555
-0.110713
-0.10876
-0.1067
-0.104533
-0.102262
-0.0998884
-0.0974157
-0.0948458
-0.0921815
-0.0894252
-0.0865798
-0.0836481
-0.080633
-0.0775376
-0.0743648
-0.0711179
-0.0678002
-0.0644148
-0.0609652
-0.0574549
-0.0538873
-0.0502659
-0.0465945
-0.0428766
-0.039116
-0.0353164
-0.0314816
-0.0276154
-0.0237217
-0.0198043
-0.0158672
-0.0119142
-0.00794943
-0.0039767
0
0
0.00496343
0.00992192
0.0148705
0.0198043
0.0247183
0.0296077
0.0344676
0.0392931
0.0440794
0.0488219
0.0535156
0.058156
0.0627384
0.0672583
0.0717112
0.0760925
0.080398
0.0846234
0.0887644
0.0928169
0.0967769
0.10064
0.104404
0.108063
0.111614
0.115054
0.11838
0.121587
0.124674
0.127636
0.13047
0.133175
0.135747
0.138184
0.140483
0.142641
0.144658
0.146531
0.148257
0.149836
0.151265
0.152543
0.15367
0.154643
0.155462
0.156126
0.156635
0.156987
0.157183
0.157222
0.157105
0.156831
0.1564
0.155814
0.155072
0.154176
0.153126
0.151923
0.150569
0.149065
0.147412
0.145613
0.143668
0.14158
0.139351
0.136982
0.134478
0.131839
0.129069
0.12617
0.123146
0.119999
0.116732
0.113348
0.109852
0.106247
0.102535
0.098721
0.0948087
0.090802
0.0867047
0.082521
0.078255
0.073911
0.0694934
0.0650065
0.0604547
0.0558428
0.0511751
0.0464564
0.0416915
0.0368849
0.0320416
0.0271664
0.0222641
0.0173396
0.0123978
0.0074436
0.00248203
-0.00248203
-0.0074436
-0.0123978
-0.0173396
-0.0222641
-0.0271664
-0.0320416
-0.0368849
-0.0416915
-0.0464564
-0.0511751
-0.0558428
-0.0604547
-0.0650065
-0.0694934
-0.073911
-0.078255
-0.082521
-0.0867047
-0.090802
-0.0948087
-0.098721
-0.102535
-0.106247
-0.109852
-0.113348
-0.116732
-0.119999
-0.123146
-0.12617
-0.129069
-0.131839
-0.134478
-0.136982
-0.139351
-0.14158
-0.143668
-0.145613
-0.147412
-0.149065
-0.150569
-0.151923
-0.153126
-0.154176
-0.155072
-0.155814
-0.1564
-0.156831
-0.157105
-0.157222
-0.157183
-0.156987
-0.156635
-0.156126
-0.155462
-0.154643
-0.15367
-0.152543
-0.151265
-0.149836
-0.148257
-0.146531
-0.144658
-0.142641
-0.140483
-0.138184
-0.135747
-0.133175
-0.13047
-0.127636
-0.124674
-0.121587
-0.11838
-0.115054
-0.111614
-0.108063
-0.104404
-0.10064
-0.0967769
-0.0928169
-0.0887644
-0.0846234
-0.080398
-0.0760925
-0.0717112
-0.0672583
-0.0627384
-0.058156
-0.0535156
-0.0488219
-0.0440794
-0.0392931
-0.0344676
-0.0296077
-0.0247183
-0.0198043
-0.0148705
-0.00992192
-0.00496343
0
0
0.00594522
0.0118845
0.017812
0.0237217
0.0296077
0.0354642
0.0412854
0.0470654
0.0527985
0.058479
0.0641012
0.0696595
0.0751484
0.0805623
0.0858959
0.0911439
0.0963011
0.101362
0.106322
0.111177
0.11592
0.120548
0.125055
0.129438
0.133692
0.137813
0.141796
0.145638
0.149335
0.152883
0.156278
0.159518
0.162598
0.165517
0.168271
0.170857
0.173272
0.175515
0.177583
0.179474
0.181186
0.182717
0.184066
0.185232
0.186213
0.187009
0.187618
0.18804
0.188275
0.188321
0.188181
0.187852
0.187337
0.186634
0.185746
0.184672
0.183415
0.181974
0.180352
0.178551
0.176571
0.174415
0.172086
0.169585
0.166915
0.164078
0.161078
0.157918
0.1546
0.151127
0.147505
0.143735
0.139822
0.135769
0.131581
0.127263
0.122817
0.118248
0.113562
0.108763
0.103855
0.098844
0.0937342
0.088531
0.0832395
0.077865
0.072413
0.0668887
0.0612978
0.0556457
0.0499382
0.0441809
0.0383796
0.03254
0.026668
0.0207694
0.0148501
0.00891598
0.00297298
-0.00297298
-0.00891598
-0.0148501
-0.0207694
-0.026668
-0.03254
-0.0383796
-0.0441809
-0.0499382
-0.0556457
-0.0612978
-0.0668887
-0.072413
-0.077865
-0.0832395
-0.088531
-0.0937342
-0.098844
-0.103855
-0.108763
-0.113562
-0.118248
-0.122817
-0.127263
-0.131581
-0.135769
-0.139822
-0.143735
-0.147505
-0.151127
-0.1546
-0.157918
-0.161078
-0.164078
-0.166915
-0.169585
-0.172086
-0.174415
-0.176571
-0.178551
-0.180352
-0.181974
-0.183415
-0.184672
-0.185746
-0.186634
-0.187337
-0.187852
-0.188181
-0.188321
-0.188275
-0.18804
-0.187618
-0.187009
-0.186213
-0.185232
-0.184066
-0.182717
-0.181186
-0.179474
-0.177583
-0.175515
-0.173272
-0.170857
-0.168271
-0.165517
-0.162598
-0.159518
-0.156278
-0.152883
-0.149335
-0.145638
-0.141796
-0.137813
-0.133692
-0.129438
-0.125055
-0.120548
-0.11592
-0.111177
-0.106322
-0.101362
-0.0963011
-0.0911439
-0.0858959
-0.0805623
-0.0751484
-0.0696595
-0.0641012
-0.058479
-0.0527985
-0.0470654
-0.0412854
-0.0354642
-0.0296077
-0.0237217
-0.017812
-0.0118845
-0.00594522
0
0
0.00692108
0.0138353
0.0207357
0.0276154
0.0344676
0.0412854
0.0480621
0.0547909
0.061465
0.0680779
0.0746229
0.0810936
0.0874834
0.093786
0.0999951
0.106105
0.112108
0.118
0.123774
0.129425
0.134947
0.140335
0.145582
0.150684
0.155637
0.160434
0.165071
0.169543
0.173847
0.177977
0.18193
0.185701
0.189288
0.192685
0.195891
0.198901
0.201713
0.204324
0.206732
0.208933
0.210926
0.212709
0.21428
0.215637
0.216779
0.217705
0.218414
0.218905
0.219178
0.219233
0.219069
0.218687
0.218087
0.217269
0.216235
0.214985
0.213521
0.211844
0.209956
0.207858
0.205554
0.203044
0.200332
0.197421
0.194312
0.19101
0.187518
0.183839
0.179976
0.175934
0.171716
0.167328
0.162772
0.158055
0.15318
0.148152
0.142976
0.137658
0.132203
0.126616
0.120902
0.115068
0.10912
0.103063
0.0969026
0.090646
0.084299
0.077868
0.0713593
0.0647795
0.0581352
0.0514329
0.0446793
0.0378812
0.0310453
0.0241785
0.0172876
0.0103795
0.00346097
-0.00346097
-0.0103795
-0.0172876
-0.0241785
-0.0310453
-0.0378812
-0.0446793
-0.0514329
-0.0581352
-0.0647795
-0.0713593
-0.077868
-0.084299
-0.090646
-0.0969026
-0.103063
-0.10912
-0.115068
-0.120902
-0.126616
-0.132203
-0.137658
-0.142976
-0.148152
-0.15318
-0.158055
-0.162772
-0.167328
-0.171716
-0.175934
-0.179976
-0.183839
-0.187518
-0.19101
-0.194312
-0.197421
-0.200332
-0.203044
-0.205554
-0.207858
-0.209956
-0.211844
-0.213521
-0.214985
-0.216235
-0.217269
-0.218087
-0.218687
-0.219069
-0.219233
-0.219178
-0.218905
-0.218414
-0.217705
-0.216779
-0.215637
-0.21428
-0.212709
-0.210926
-0.208933
-0.206732
-0.204324
-0.201713
-0.198901
-0.195891
-0.192685
-0.189288
-0.185701
-0.18193
-0.177977
-0.173847
-0.169543
-0.165071
-0.160434
-0.155637
-0.150684
-0.145582
-0.140335
-0.134947
-0.129425
-0.123774
-0.118
-0.112108
-0.106105
-0.0999951
-0.093786
-0.0874834
-0.0810936
-0.0746229
-0.0680779
-0.061465
-0.0547909
-0.0480621
-0.0412854
-0.0344676
-0.0276154
-0.0207357
-0.0138353
-0.00692108
0
0
0.00789005
0.0157722
0.0236387
0.0314816
0.0392931
0.0470654
0.0547909
0.0624617
0.0700702
0.0776089
0.0850703
0.0924468
0.0997312
0.106916
0.113995
0.120959
0.127804
0.13452
0.141103
0.147545
0.15384
0.159982
0.165964
0.17178
0.177426
0.182895
0.188181
0.19328
0.198186
0.202894
0.2074
0.2117
0.215788
0.219662
0.223316
0.226748
0.229954
0.23293
0.235675
0.238184
0.240456
0.242488
0.244279
0.245826
0.247128
0.248184
0.248992
0.249552
0.249864
0.249926
0.249739
0.249303
0.248619
0.247687
0.246508
0.245083
0.243414
0.241502
0.23935
0.236959
0.234332
0.231471
0.228379
0.22506
0.221517
0.217752
0.213771
0.209576
0.205173
0.200565
0.195757
0.190754
0.185561
0.180183
0.174625
0.168893
0.162993
0.15693
0.150711
0.144342
0.137829
0.131178
0.124397
0.117492
0.110469
0.103337
0.096101
0.0887696
0.0813497
0.0738488
0.0662742
0.0586336
0.0509345
0.0431846
0.0353917
0.0275636
0.0197079
0.0118326
0.00394551
-0.00394551
-0.0118326
-0.0197079
-0.0275636
-0.0353917
-0.0431846
-0.0509345
-0.0586336
-0.0662742
-0.0738488
-0.0813497
-0.0887696
-0.096101
-0.103337
-0.110469
-0.117492
-0.124397
-0.131178
-0.137829
-0.144342
-0.150711
-0.15693
-0.162993
-0.168893
-0.174625
-0.180183
-0.185561
-0.190754
-0.195757
-0.200565
-0.205173
-0.209576
-0.213771
-0.217752
-0.221517
-0.22506
-0.228379
-0.231471
-0.234332
-0.236959
-0.23935
-0.241502
-0.243414
-0.245083
-0.246508
-0.247687
-0.248619
-0.249303
-0.249739
-0.249926
-0.249864
-0.249552
-0.248992
-0.248184
-0.247128
-0.245826
-0.244279
-0.242488
-0.240456
-0.238184
-0.235675
-0.23293
-0.229954
-0.226748
-0.223316
-0.219662
-0.215788
-0.2117
-0.2074
-0.202894
-0.198186
-0.19328
-0.188181
-0.182895
-0.177426
-0.17178
-0.165964
-0.159982
-0.15384
-0.147545
-0.141103
-0.13452
-0.127804
-0.120959
-0.113995
-0.106916
-0.0997312
-0.0924468
-0.0850703
-0.0776089
-0.0700702
-0.0624617
-0.0547909
-0.0470654
-0.0392931
-0.0314816
-0.0236387
-0.0157722
-0.00789005
0
0
0.00885114
0.0176935
0.0265181
0.0353164
0.0440794
0.0527985
0.061465
0.0700702
0.0786056
0.0870626
0.0954328
0.103708
0.11188
0.11994
0.12788
0.135694
0.143371
0.150906
0.158291
0.165518
0.172579
0.179469
0.18618
0.192705
0.199038
0.205173
0.211103
0.216823
0.222327
0.227609
0.232664
0.237487
0.242074
0.246419
0.250519
0.254368
0.257965
0.261304
0.264383
0.267198
0.269746
0.272026
0.274035
0.275771
0.277231
0.278416
0.279322
0.279951
0.2803
0.28037
0.28016
0.279671
0.278904
0.277858
0.276535
0.274937
0.273065
0.27092
0.268505
0.265823
0.262876
0.259667
0.256199
0.252475
0.2485
0.244277
0.23981
0.235105
0.230165
0.224996
0.219602
0.21399
0.208164
0.202131
0.195896
0.189466
0.182847
0.176046
0.16907
0.161925
0.154618
0.147157
0.13955
0.131803
0.123926
0.115924
0.107807
0.0995828
0.0912591
0.0828444
0.0743472
0.0657758
0.0571389
0.048445
0.0397029
0.0309211
0.0221086
0.013274
0.00442612
-0.00442612
-0.013274
-0.0221086
-0.0309211
-0.0397029
-0.048445
-0.0571389
-0.0657758
-0.0743472
-0.0828444
-0.0912591
-0.0995828
-0.107807
-0.115924
-0.123926
-0.131803
-0.13955
-0.147157
-0.154618
-0.161925
-0.16907
-0.176046
-0.182847
-0.189466
-0.195896
-0.202131
-0.208164
-0.21399
-0.219602
-0.224996
-0.230165
-0.235105
-0.23981
-0.244277
-0.2485
-0.252475
-0.256199
-0.259667
-0.262876
-0.265823
-0.268505
-0.27092
-0.273065
-0.274937
-0.276535
-0.277858
-0.278904
-0.279671
-0.28016
-0.28037
-0.2803
-0.279951
-0.279322
-0.278416
-0.277231
-0.275771
-0.274035
-0.272026
-0.269746
-0.267198
-0.264383
-0.261304
-0.257965
-0.254368
-0.250519
-0.246419
-0.242074
-0.237487
-0.232664
-0.227609
-0.222327
-0.216823
-0.211103
-0.205173
-0.199038
-0.192705
-0.18618
-0.179469
-0.172579
-0.165518
-0.158291
-0.150906
-0.143371
-0.135694
-0.12788
-0.11994
-0.11188
-0.103708
-0.0954328
-0.0870626
-0.0786056
-0.0700702
-0.061465
-0.0527985
-0.0440794
-0.0353164
-0.0265181
-0.0176935
-0.00885114
0
0
0.00980342
0.0195971
0.0293712
0.039116
0.0488219
0.058479
0.0680779
0.0776089
0.0870626
0.0964295
0.1057
0.114866
0.123916
0.132844
0.141639
0.150293
0.158796
0.167142
0.175321
0.183325
0.191147
0.198778
0.206211
0.213438
0.220453
0.227247
0.233816
0.240151
0.246247
0.252097
0.257696
0.263038
0.268118
0.272931
0.277471
0.281735
0.285719
0.289417
0.292827
0.295945
0.298768
0.301293
0.303518
0.30544
0.307058
0.30837
0.309374
0.31007
0.310457
0.310534
0.310302
0.309761
0.30891
0.307752
0.306287
0.304517
0.302443
0.300068
0.297393
0.294423
0.291158
0.287604
0.283762
0.279638
0.275235
0.270558
0.265611
0.260399
0.254928
0.249203
0.243229
0.237013
0.23056
0.223878
0.216972
0.209851
0.20252
0.194987
0.18726
0.179346
0.171253
0.16299
0.154564
0.145984
0.137258
0.128396
0.119406
0.110297
0.101077
0.0917575
0.082346
0.0728525
0.0632864
0.0536571
0.0439744
0.0342479
0.0244872
0.0147021
0.00490232
-0.00490232
-0.0147021
-0.0244872
-0.0342479
-0.0439744
-0.0536571
-0.0632864
-0.0728525
-0.082346
-0.0917575
-0.101077
-0.110297
-0.119406
-0.128396
-0.137258
-0.145984
-0.154564
-0.16299
-0.171253
-0.179346
-0.18726
-0.194987
-0.20252
-0.209851
-0.216972
-0.223878
-0.23056
-0.237013
-0.243229
-0.249203
-0.254928
-0.260399
-0.265611
-0.270558
-0.275235
-0.279638
-0.283762
-0.287604
-0.291158
-0.294423
-0.297393
-0.300068
-0.302443
-0.304517
-0.306287
-0.307752
-0.30891
-0.309761
-0.310302
-0.310534
-0.310457
-0.31007
-0.309374
-0.30837
-0.307058
-0.30544
-0.303518
-0.301293
-0.298768
-0.295945
-0.292827
-0.289417
-0.285719
-0.281735
-0.277471
-0.272931
-0.268118
-0.263038
-0.257696
-0.252097
-0.246247
-0.240151
-0.233816
-0.227247
-0.220453
-0.213438
-0.206211
-0.198778
-0.191147
-0.183325
-0.175321
-0.167142
-0.158796
-0.150293
-0.141639
-0.132844
-0.123916
-0.114866
-0.1057
-0.0964295
-0.0870626
-0.0776089
-0.0680779
-0.058479
-0.0488219
-0.039116
-0.0293712
-0.0195971
-0.00980342
0
0
0.0107459
0.0214811
0.0321949
0.0428766
0.0535156
0.0641012
0.0746229
0.0850703
0.0954328
0.1057
0.115862
0.125909
0.13583
0.145615
0.155256
0.164742
0.174063
0.183211
0.192177
0.20095
0.209524
0.217888
0.226036
0.233958
0.241647
0.249095
0.256295
0.263239
0.269921
0.276334
0.282471
0.288327
0.293895
0.29917
0.304148
0.308821
0.313188
0.317242
0.320979
0.324397
0.327491
0.330259
0.332698
0.334805
0.336579
0.338016
0.339117
0.33988
0.340304
0.340389
0.340135
0.339541
0.338609
0.337339
0.335734
0.333793
0.33152
0.328916
0.325985
0.322728
0.31915
0.315254
0.311043
0.306523
0.301697
0.29657
0.291147
0.285434
0.279437
0.273161
0.266613
0.259799
0.252726
0.245402
0.237832
0.230026
0.22199
0.213733
0.205263
0.196588
0.187717
0.178659
0.169424
0.160019
0.150454
0.14074
0.130886
0.120901
0.110795
0.100579
0.0902628
0.0798566
0.0693707
0.0588157
0.0482021
0.0375405
0.0268414
0.0161155
0.00537363
-0.00537363
-0.0161155
-0.0268414
-0.0375405
-0.0482021
-0.0588157
-0.0693707
-0.0798566
-0.0902628
-0.100579
-0.110795
-0.120901
-0.130886
-0.14074
-0.150454
-0.160019
-0.169424
-0.178659
-0.187717
-0.196588
-0.205263
-0.213733
-0.22199
-0.230026
-0.237832
-0.245402
-0.252726
-0.259799
-0.266613
-0.273161
-0.279437
-0.285434
-0.291147
-0.29657
-0.301697
-0.306523
-0.311043
-0.315254
-0.31915
-0.322728
-0.325985
-0.328916
-0.33152
-0.333793
-0.335734
-0.337339
-0.338609
-0.339541
-0.340135
-0.340389
-0.340304
-0.33988
-0.339117
-0.338016
-0.336579
-0.334805
-0.332698
-0.330259
-0.327491
-0.324397
-0.320979
-0.317242
-0.313188
-0.308821
-0.304148
-0.29917
-0.293895
-0.288327
-0.282471
-0.276334
-0.269921
-0.263239
-0.256295
-0.249095
-0.241647
-0.233958
-0.226036
-0.217888
-0.209524
-0.20095
-0.192177
-0.183211
-0.174063
-0.164742
-0.155256
-0.145615
-0.13583
-0.125909
-0.115862
-0.1057
-0.0954328
-0.0850703
-0.0746229
-0.0641012
-0.0535156
-0.0428766
-0.0321949
-0.0214811
-0.0107459
0
0
0.0116777
0.0233438
0.0349866
0.0465945
0.058156
0.0696595
0.0810936
0.0924468
0.103708
0.114866
0.125909
0.136826
0.147608
0.158242
0.168718
0.179027
0.189156
0.199098
0.20884
0.218375
0.227692
0.236782
0.245636
0.254245
0.2626
0.270694
0.278518
0.286065
0.293326
0.300295
0.306964
0.313328
0.319379
0.325112
0.33052
0.3356
0.340344
0.34475
0.348812
0.352526
0.355889
0.358897
0.361547
0.363836
0.365764
0.367326
0.368522
0.369351
0.369812
0.369904
0.369628
0.368983
0.36797
0.366591
0.364846
0.362737
0.360267
0.357437
0.354251
0.350713
0.346824
0.34259
0.338014
0.333102
0.327857
0.322285
0.316393
0.310185
0.303667
0.296847
0.289731
0.282327
0.274641
0.266681
0.258455
0.249971
0.241239
0.232266
0.223061
0.213634
0.203994
0.194151
0.184114
0.173894
0.163501
0.152944
0.142235
0.131384
0.120402
0.1093
0.0980896
0.086781
0.0753859
0.0639157
0.0523818
0.0407956
0.0291688
0.0175129
0.00583958
-0.00583958
-0.0175129
-0.0291688
-0.0407956
-0.0523818
-0.0639157
-0.0753859
-0.086781
-0.0980896
-0.1093
-0.120402
-0.131384
-0.142235
-0.152944
-0.163501
-0.173894
-0.184114
-0.194151
-0.203994
-0.213634
-0.223061
-0.232266
-0.241239
-0.249971
-0.258455
-0.266681
-0.274641
-0.282327
-0.289731
-0.296847
-0.303667
-0.310185
-0.316393
-0.322285
-0.327857
-0.333102
-0.338014
-0.34259
-0.346824
-0.350713
-0.354251
-0.357437
-0.360267
-0.362737
-0.364846
-0.366591
-0.36797
-0.368983
-0.369628
-0.369904
-0.369812
-0.369351
-0.368522
-0.367326
-0.365764
-0.363836
-0.361547
-0.358897
-0.355889
-0.352526
-0.348812
-0.34475
-0.340344
-0.3356
-0.33052
-0.325112
-0.319379
-0.313328
-0.306964
-0.300295
-0.293326
-0.286065
-0.278518
-0.270694
-0.2626
-0.254245
-0.245636
-0.236782
-0.227692
-0.218375
-0.20884
-0.199098
-0.189156
-0.179027
-0.168718
-0.158242
-0.147608
-0.136826
-0.125909
-0.114866
-0.103708
-0.0924468
-0.0810936
-0.0696595
-0.058156
-0.0465945
-0.0349866
-0.0233438
-0.0116777
0
0
0.0125979
0.0251832
0.0377434
0.0502659
0.0627384
0.0751484
0.0874834
0.0997312
0.11188
0.123916
0.13583
0.147608
0.159239
0.170711
0.182013
0.193133
0.204061
0.214786
0.225296
0.235582
0.245633
0.255439
0.264991
0.274278
0.283292
0.292024
0.300464
0.308605
0.316439
0.323957
0.331152
0.338017
0.344545
0.350729
0.356564
0.362043
0.367162
0.371915
0.376297
0.380303
0.383931
0.387176
0.390035
0.392505
0.394584
0.39627
0.39756
0.398455
0.398952
0.399051
0.398753
0.398057
0.396965
0.395476
0.393594
0.391319
0.388654
0.385601
0.382165
0.378347
0.374152
0.369584
0.364648
0.359349
0.353691
0.34768
0.341323
0.334626
0.327595
0.320238
0.312561
0.304573
0.296281
0.287694
0.27882
0.269668
0.260247
0.250567
0.240637
0.230468
0.220068
0.209449
0.198622
0.187596
0.176384
0.164995
0.153442
0.141736
0.129889
0.117913
0.105819
0.093619
0.081326
0.068952
0.0565092
0.0440101
0.0314672
0.0188929
0.00629972
-0.00629972
-0.0188929
-0.0314672
-0.0440101
-0.0565092
-0.068952
-0.081326
-0.093619
-0.105819
-0.117913
-0.129889
-0.141736
-0.153442
-0.164995
-0.176384
-0.187596
-0.198622
-0.209449
-0.220068
-0.230468
-0.240637
-0.250567
-0.260247
-0.269668
-0.27882
-0.287694
-0.296281
-0.304573
-0.312561
-0.320238
-0.327595
-0.334626
-0.341323
-0.34768
-0.353691
-0.359349
-0.364648
-0.369584
-0.374152
-0.378347
-0.382165
-0.385601
-0.388654
-0.391319
-0.393594
-0.395476
-0.396965
-0.398057
-0.398753
-0.399051
-0.398952
-0.398455
-0.39756
-0.39627
-0.394584
-0.392505
-0.390035
-0.387176
-0.383931
-0.380303
-0.376297
-0.371915
-0.367162
-0.362043
-0.356564
-0.350729
-0.344545
-0.338017
-0.331152
-0.323957
-0.316439
-0.308605
-0.300464
-0.292024
-0.283292
-0.274278
-0.264991
-0.255439
-0.245633
-0.235582
-0.225296
-0.214786
-0.204061
-0.193133
-0.182013
-0.170711
-0.159239
-0.147608
-0.13583
-0.123916
-0.11188
-0.0997312
-0.0874834
-0.0751484
-0.0627384
-0.0502659
-0.0377434
-0.0251832
-0.0125979
0
0
0.0135055
0.0269974
0.0404625
0.0538873
0.0672583
0.0805623
0.093786
0.106916
0.11994
0.132844
0.145615
0.158242
0.170711
0.183009
0.195125
0.207047
0.218762
0.23026
0.241527
0.252554
0.263329
0.273842
0.284082
0.294038
0.303701
0.313062
0.322111
0.330838
0.339236
0.347296
0.355009
0.362368
0.369367
0.375997
0.382252
0.388126
0.393614
0.398709
0.403406
0.407702
0.411591
0.415069
0.418134
0.420783
0.423011
0.424818
0.426202
0.427161
0.427694
0.4278
0.42748
0.426735
0.425563
0.423968
0.421949
0.419511
0.416654
0.413382
0.409697
0.405604
0.401107
0.396211
0.390919
0.385237
0.379172
0.372728
0.365913
0.358733
0.351196
0.343309
0.335079
0.326515
0.317626
0.30842
0.298907
0.289096
0.278996
0.268619
0.257974
0.247071
0.235923
0.224539
0.212931
0.201111
0.189091
0.176882
0.164497
0.151948
0.139247
0.126408
0.113442
0.100364
0.087185
0.0739195
0.0605803
0.0471808
0.0337342
0.020254
0.00675357
-0.00675357
-0.020254
-0.0337342
-0.0471808
-0.0605803
-0.0739195
-0.087185
-0.100364
-0.113442
-0.126408
-0.139247
-0.151948
-0.164497
-0.176882
-0.189091
-0.201111
-0.212931
-0.224539
-0.235923
-0.247071
-0.257974
-0.268619
-0.278996
-0.289096
-0.298907
-0.30842
-0.317626
-0.326515
-0.335079
-0.343309
-0.351196
-0.358733
-0.365913
-0.372728
-0.379172
-0.385237
-0.390919
-0.396211
-0.401107
-0.405604
-0.409697
-0.413382
-0.416654
-0.419511
-0.421949
-0.423968
-0.425563
-0.426735
-0.42748
-0.4278
-0.427694
-0.427161
-0.426202
-0.424818
-0.423011
-0.420783
-0.418134
-0.415069
-0.411591
-0.407702
-0.403406
-0.398709
-0.393614
-0.388126
-0.382252
-0.375997
-0.369367
-0.362368
-0.355009
-0.347296
-0.339236
-0.330838
-0.322111
-0.313062
-0.303701
-0.294038
-0.284082
-0.273842
-0.263329
-0.252554
-0.241527
-0.23026
-0.218762
-0.207047
-0.195125
-0.183009
-0.170711
-0.158242
-0.145615
-0.132844
-0.11994
-0.106916
-0.093786
-0.0805623
-0.0672583
-0.0538873
-0.0404625
-0.0269974
-0.0135055
0
0
0.0143996
0.0287848
0.0431414
0.0574549
0.0717112
0.0858959
0.0999951
0.113995
0.12788
0.141639
0.155256
0.168718
0.182013
0.195125
0.208044
0.220755
0.233246
0.245504
0.257518
0.269274
0.280763
0.291972
0.302889
0.313505
0.323808
0.333788
0.343436
0.352741
0.361695
0.370288
0.378512
0.386359
0.393821
0.40089
0.407559
0.413822
0.419673
0.425105
0.430114
0.434694
0.43884
0.442549
0.445817
0.448641
0.451017
0.452943
0.454419
0.455441
0.456009
0.456123
0.455782
0.454987
0.453738
0.452036
0.449885
0.447284
0.444238
0.440749
0.436821
0.432458
0.427663
0.422442
0.4168
0.410742
0.404275
0.397405
0.390138
0.382483
0.374447
0.366037
0.357263
0.348132
0.338654
0.328839
0.318696
0.308235
0.297467
0.286403
0.275053
0.263429
0.251542
0.239405
0.227028
0.214426
0.20161
0.188593
0.175387
0.162007
0.148466
0.134776
0.120953
0.107008
0.0929571
0.0788134
0.0645911
0.0503044
0.0359676
0.0215949
0.00720069
-0.00720069
-0.0215949
-0.0359676
-0.0503044
-0.0645911
-0.0788134
-0.0929571
-0.107008
-0.120953
-0.134776
-0.148466
-0.162007
-0.175387
-0.188593
-0.20161
-0.214426
-0.227028
-0.239405
-0.251542
-0.263429
-0.275053
-0.286403
-0.297467
-0.308235
-0.318696
-0.328839
-0.338654
-0.348132
-0.357263
-0.366037
-0.374447
-0.382483
-0.390138
-0.397405
-0.404275
-0.410742
-0.4168
-0.422442
-0.427663
-0.432458
-0.436821
-0.440749
-0.444238
-0.447284
-0.449885
-0.452036
-0.453738
-0.454987
-0.455782
-0.456123
-0.456009
-0.455441
-0.454419
-0.452943
-0.451017
-0.448641
-0.445817
-0.442549
-0.43884
-0.434694
-0.430114
-0.425105
-0.419673
-0.413822
-0.407559
-0.40089
-0.393821
-0.386359
-0.378512
-0.370288
-0.361695
-0.352741
-0.343436
-0.333788
-0.323808
-0.313505
-0.302889
-0.291972
-0.280763
-0.269274
-0.257518
-0.245504
-0.233246
-0.220755
-0.208044
-0.195125
-0.182013
-0.168718
-0.155256
-0.141639
-0.12788
-0.113995
-0.0999951
-0.0858959
-0.0717112
-0.0574549
-0.0431414
-0.0287848
-0.0143996
0
0
0.0152794
0.0305435
0.0457772
0.0609652
0.0760925
0.0911439
0.106105
0.120959
0.135694
0.150293
0.164742
0.179027
0.193133
0.207047
0.220755
0.234242